80
Config_type=. Weight=1.0 Lattice="0.000000000 9.588169000 9.588169000 9.588169000 0.000000000 9.588169000 9.588169000 9.588169000 0.000000000" Energy=-263.068944 Virial="0.01527 -0.00000 0.00000 -0.00000 0.01527 -0.00000 0.00000 -0.00000 0.01527" Properties=species:S:1:pos:R:3:force:R:3
I	      0.00000      0.00000      0.00000         0.000000     -0.000000      0.000000
I	      0.00000      4.79408      4.79408         0.000000     -0.000000     -0.000000
I	      4.79408      0.00000      4.79408        -0.000000     -0.000000     -0.000000
I	     14.38225     14.38225      9.58817        -0.000000      0.000000      0.000000
I	      4.79408      4.79408      0.00000        -0.000000      0.000000     -0.000000
I	     14.38225      9.58817     14.38225        -0.000000      0.000000     -0.000000
I	      9.58817     14.38225     14.38225        -0.000000     -0.000000      0.000000
I	      9.58817      9.58817      9.58817        -0.000000     -0.000000      0.000000
I	      2.39704      2.39704      2.39704         0.000000      0.000000     -0.000000
I	      2.39704      7.19113      7.19113         0.000000      0.000000      0.000000
I	      7.19113      2.39704      7.19113         0.000000      0.000000     -0.000000
I	      7.19113      7.19113     11.98521         0.000000      0.000000      0.000000
I	      7.19113      7.19113      2.39704         0.000000      0.000000      0.000000
I	      7.19113     11.98521      7.19113         0.000000      0.000000      0.000000
I	     11.98521      7.19113      7.19113         0.000000      0.000000     -0.000000
I	     11.98521     11.98521     11.98521         0.000000      0.000000      0.000000
I	      7.19113      7.19113      7.19113        -0.000000     -0.000000     -0.000000
I	      7.19113     11.98521     11.98521        -0.000000     -0.000000     -0.000000
I	     11.98521      7.19113     11.98521        -0.000000     -0.000000     -0.000000
I	     11.98521     11.98521     16.77930        -0.000000     -0.000000     -0.000000
I	     11.98521     11.98521      7.19113        -0.000000     -0.000000     -0.000000
I	     11.98521     16.77930     11.98521        -0.000000     -0.000000     -0.000000
I	     16.77930     11.98521     11.98521        -0.000000     -0.000000     -0.000000
I	     16.77930     16.77930     16.77930        -0.000000     -0.000000     -0.000000
N	      4.79408      4.79408      4.79408        -0.000000      0.000000      0.000000
N	      4.79408      9.58817      9.58817         0.000000      0.000000      0.000000
N	      9.58817      4.79408      9.58817         0.000000      0.000000     -0.000000
N	      9.58817      9.58817     14.38225         0.000000      0.000000     -0.000000
N	      9.58817      9.58817      4.79408        -0.000000     -0.000000     -0.000000
N	      9.58817     14.38225      9.58817        -0.000000     -0.000000      0.000000
N	     14.38225      9.58817      9.58817         0.000000     -0.000000     -0.000000
N	     14.38225     14.38225     14.38225         0.000000      0.000000      0.000000
Li	      4.79408      6.73474      4.79408         0.000000     -0.000113      0.000000
Li	      4.79408     11.52882      9.58817        -0.000000     -0.000113      0.000000
Li	      9.58817      6.73474      9.58817        -0.000000     -0.000113      0.000000
Li	      9.58817     11.52882     14.38225        -0.000000     -0.000113      0.000000
Li	      9.58817     11.52882      4.79408        -0.000000     -0.000113      0.000000
Li	      9.58817     16.32291      9.58817         0.000000     -0.000113      0.000000
Li	     14.38225     11.52882      9.58817         0.000000     -0.000113      0.000000
Li	     14.38225     16.32291     14.38225        -0.000000     -0.000113      0.000000
Li	      4.79408      2.85343      4.79408         0.000000      0.000113      0.000000
Li	      4.79408      7.64752      9.58817         0.000000      0.000113      0.000000
Li	      9.58817      2.85343      9.58817        -0.000000      0.000113      0.000000
Li	      9.58817      7.64752     14.38225        -0.000000      0.000113      0.000000
Li	      9.58817      7.64752      4.79408         0.000000      0.000113      0.000000
Li	      9.58817     12.44160      9.58817         0.000000      0.000113      0.000000
Li	     14.38225      7.64752      9.58817         0.000000      0.000113      0.000000
Li	     14.38225     12.44160     14.38225         0.000000      0.000113      0.000000
Li	      4.79408      4.79408      6.73474        -0.000000      0.000000     -0.000113
Li	      4.79408      9.58817     11.52882        -0.000000      0.000000     -0.000113
Li	      9.58817      4.79408     11.52882         0.000000      0.000000     -0.000113
Li	      9.58817      9.58817     16.32291         0.000000      0.000000     -0.000113
Li	      9.58817      9.58817      6.73474        -0.000000      0.000000     -0.000113
Li	      9.58817     14.38225     11.52882        -0.000000      0.000000     -0.000113
Li	     14.38225      9.58817     11.52882         0.000000      0.000000     -0.000113
Li	     14.38225     14.38225     16.32291         0.000000      0.000000     -0.000113
Li	      4.79408      4.79408      2.85343        -0.000000      0.000000      0.000113
Li	      4.79408      9.58817      7.64752        -0.000000      0.000000      0.000113
Li	      9.58817      4.79408      7.64752         0.000000      0.000000      0.000113
Li	      9.58817      9.58817     12.44160        -0.000000      0.000000      0.000113
Li	      9.58817      9.58817      2.85343        -0.000000      0.000000      0.000113
Li	      9.58817     14.38225      7.64752        -0.000000      0.000000      0.000113
Li	     14.38225      9.58817      7.64752         0.000000      0.000000      0.000113
Li	     14.38225     14.38225     12.44160        -0.000000      0.000000      0.000113
Li	      6.73474      4.79408      4.79408        -0.000113      0.000000      0.000000
Li	      6.73474      9.58817      9.58817        -0.000113      0.000000      0.000000
Li	     11.52882      4.79408      9.58817        -0.000113      0.000000      0.000000
Li	     11.52882      9.58817     14.38225        -0.000113      0.000000      0.000000
Li	     11.52882      9.58817      4.79408        -0.000113      0.000000      0.000000
Li	     11.52882     14.38225      9.58817        -0.000113      0.000000      0.000000
Li	     16.32291      9.58817      9.58817        -0.000113      0.000000      0.000000
Li	     16.32291     14.38225     14.38225        -0.000113      0.000000      0.000000
Li	      2.85343      4.79408      4.79408         0.000113      0.000000      0.000000
Li	      2.85343      9.58817      9.58817         0.000113      0.000000      0.000000
Li	      7.64752      4.79408      9.58817         0.000113      0.000000      0.000000
Li	      7.64752      9.58817     14.38225         0.000113      0.000000      0.000000
Li	      7.64752      9.58817      4.79408         0.000113      0.000000      0.000000
Li	      7.64752     14.38225      9.58817         0.000113      0.000000      0.000000
Li	     12.44160      9.58817      9.58817         0.000113      0.000000      0.000000
Li	     12.44160     14.38225     14.38225         0.000113      0.000000      0.000000
80
Config_type=. Weight=1.0 Lattice="0.677674000 9.368359000 10.309814000 9.246049000 -1.065679000 10.311729000 9.580207000 9.580207000 0.000000000" Energy=-261.848462 Virial="-0.06775 -0.03982 2.21549 -0.03982 -2.90091 2.85822 2.21549 2.85822 -0.04117" Properties=species:S:1:pos:R:3:force:R:3
I	     10.19708     17.93419     10.66603         0.335426      0.184672      0.357300
I	     10.49318     13.14508      5.89813        -0.172264     -0.080396     -0.090646
I	      5.78208      8.61918     15.46630        -0.243498      0.268907      0.040150
I	      5.06850      4.38029     10.27354         0.041538     -0.557471     -0.019277
I	      5.59917     13.98677     10.10744        -0.049735      0.062236     -0.208451
I	     14.69793      8.81712     14.96228        -0.082361     -0.047326      0.127681
I	     10.28443     12.56304     15.96810        -0.217362      0.005676      0.229749
I	     10.26234      7.78527     10.84031        -0.044917      0.181972      0.404560
I	      2.76760      1.79237      2.56424        -0.030419     -0.116296     -0.072775
I	      3.10549      6.68283      7.60865        -0.106416     -0.048200     -0.038845
I	      7.24002      0.97982      8.36320        -0.116030     -0.161613      0.011834
I	      7.80701      5.64878     13.51432         0.592987      0.159532     -0.679276
I	      7.51468      6.02552      2.72449         0.057624     -0.137529      0.272771
I	      7.55952     10.59582      8.14270        -0.109638     -0.095677      0.059345
I	     11.78769      6.15929      7.65593         0.661478     -0.345565     -0.147909
I	     12.36321     11.48311     12.84473         0.266854     -0.508904     -0.229415
I	      7.62094      6.56152      7.75630        -0.204248     -0.161661     -0.248936
I	      8.23750     10.62756     12.80176        -0.318022      0.114296      0.034916
I	     12.45522      5.58040     13.49383        -0.063835     -0.316095      0.070477
I	     12.36787     10.12483     18.74452         0.006266     -0.184708     -0.068012
I	     12.43256     10.53545      8.38336        -0.226767     -0.027955     -0.141195
I	     12.73056     15.51453     13.59570        -0.149296      0.185632      0.036364
I	     17.43676     11.13854     12.82976        -0.281641     -0.111927      0.096503
I	     17.35904     15.11322     18.00840        -0.051401      0.088904      0.081444
N	      5.05546      3.58051      5.70221         0.020624     -0.321928     -0.485526
N	      5.23510      8.20722     10.94323         0.285811      0.827723      0.218214
N	      9.50115      3.76961     10.07848         0.692990     -0.485038     -0.399040
N	     10.26637      8.13014     15.57682         0.207550      0.487794      0.425660
N	      9.80304      9.09575      5.10395         0.901663      0.226419     -0.258285
N	     10.26440     13.34873     10.06352        -0.253144     -0.116216      0.166352
N	     14.66900      8.01416     10.98788        -0.087528      0.074822     -0.456261
N	     14.99544     12.69761     15.91160        -0.267179      0.224898     -0.161793
Li	      3.82438      5.03808      5.52609        -0.056090      0.284914     -0.084149
Li	      5.12285     10.03305      9.94252         0.151860     -0.439983      0.080063
Li	      8.72153      3.25096      8.37799        -0.072121      0.274678      0.016616
Li	     10.29543      7.28589     13.82759         0.241389     -0.095803     -0.060238
Li	     10.08296     10.16255      6.72300         0.196852      0.032441     -0.031274
Li	      8.75506     12.80804      8.84434         0.396405      0.578017      0.296039
Li	     16.03450      8.81375     12.13744        -0.030321     -0.257044     -0.069426
Li	     15.69209     14.44606     15.12262        -0.879056     -0.286663      0.537884
Li	      6.08572      1.99973      5.79071         0.382953     -0.459948      0.133015
Li	      5.32770      6.55982     11.96489        -0.036319      0.179584      0.238582
Li	     10.13887      4.54614     11.66630         0.611784      0.166027      0.306272
Li	     10.12765      9.15168     17.36758        -0.131278     -0.143761     -0.425948
Li	      9.62509      8.11210      3.33207        -0.219087     -0.128769      0.365999
Li	     11.82200     13.69678     11.26323        -0.068648      0.163627     -0.074576
Li	     13.40481      7.29515      9.61661        -0.006990      0.166984      0.213418
Li	     14.58913     10.92771     17.16133         0.126217      0.539078     -0.615620
Li	      5.19293      4.01493      7.48769         0.368324      0.313130      0.536359
Li	      5.10792      6.95274      9.52628         0.056518      0.271954     -0.427185
Li	      7.93662      3.77503     11.10460        -0.606713      0.120625     -0.184543
Li	     10.76332      9.94893     14.82164        -0.068888     -0.108807     -0.041681
Li	      9.97728      7.45262      6.28304        -0.461452      0.325708     -0.485214
Li	      9.06188     13.08599     11.63146        -0.040344      0.122981      0.038650
Li	     14.03153      9.81627     10.31963         0.473574     -0.353411      0.348013
Li	     15.16438     13.60242     17.52014         0.012182      0.055075      0.661926
Li	      4.67194      3.25471      3.86120         0.118219      0.018772     -0.309166
Li	      5.59063      9.32428     12.60765        -0.029495     -0.212344     -0.052047
Li	     11.31452      3.46571      9.07841        -0.163071      0.194271      0.476836
Li	      9.85027      6.45879     16.58974         0.067247      0.262291     -0.295799
Li	     10.06440     10.87828      4.13232        -0.107373     -0.351983      0.175894
Li	     11.46924     13.39251      8.45739        -0.368504      0.162303      0.558274
Li	     14.53283      6.08979     11.66012         0.413078      0.035770     -0.125864
Li	     14.90668     11.78059     14.20901        -0.669933     -0.162657     -0.012300
Li	      6.90654      4.49579      5.16254        -0.298909      0.105148      0.178936
Li	      3.37134      8.49023     11.17038        -0.105619     -0.134528      0.070026
Li	      9.68691      5.59469      9.40749        -0.324290     -0.112897     -0.122160
Li	     12.13113      7.67605     16.06709        -0.087810      0.091710     -0.316473
Li	     11.85452      8.86163      4.62718        -0.334149     -0.108034      0.192885
Li	      9.60673     15.18116     10.20761         0.095599     -0.019241     -0.232846
Li	     13.55428      8.27654     12.52149        -0.380343      0.007781     -0.054423
Li	     16.78093     12.24320     15.59972         0.645150     -0.168169      0.349715
Li	      3.57719      2.28760      6.18181         0.082919      0.241783     -0.346547
Li	      7.12354      8.30532     10.70024         0.500749     -0.016368     -0.153912
Li	      9.54451      1.77586     10.44832         0.101463      0.373339     -0.041955
Li	      8.48262      8.50681     14.99929        -0.211164      0.022628      0.169908
Li	      7.98415      9.39354      5.59013        -0.123345     -0.378262     -0.144014
Li	     10.68331     11.50745     10.45242         0.114819     -0.215636     -0.096190
Li	     16.24119      7.75341      9.69211        -0.543457      0.093505      0.130930
Li	     13.07154     13.53303     15.84310         0.272360     -0.318796     -0.200367
80
Config_type=. Weight=1.0 Lattice="0.000000000 9.588168520 9.588168520 9.588168520 0.000000000 9.588168520 9.588168520 9.588168520 0.000000000" Energy=-249.091015 Virial="33.58812 20.56345 -6.97972 20.56345 39.50801 -2.61914 -6.97972 -2.61914 30.20986" Properties=species:S:1:pos:R:3:force:R:3
I	      9.64459      9.75211     18.88299        -0.549467     -0.151590      0.137392
I	      0.27075      4.96362      4.78938        -0.607356     -0.202759     -0.210712
I	     14.28346     18.70894     14.15835        -0.040251      0.139988      0.276353
I	     14.63395     14.27648     10.02621        -0.595685      0.669745     -0.182209
I	      4.80963      4.57202      0.43278        -0.235764      0.042927     -0.147520
I	      5.29176      9.45628      4.85347         0.081135      0.097505      0.285538
I	      9.91773     14.55204     14.39990        -0.395443     -0.083516     -0.123206
I	      9.38961      9.85982      9.56628         0.144983     -0.276745      0.393194
I	      2.31854      2.06438      2.04205        -0.170032      0.315919      0.767367
I	      2.29227      7.70593      6.98371         0.602302     -0.614325      0.530801
I	      6.89399      2.68855      7.41112         0.470630     -0.211832     -0.566239
I	      7.22028      7.11173     12.02356         0.789446      0.755129     -0.410337
I	      7.18114      7.13608      2.04262         0.053332      0.425432      0.304489
I	      7.31882     12.06877      7.28224        -0.682440     -0.323951     -0.348790
I	     11.98417      7.24123      7.22357        -0.290158      0.136640      0.722510
I	     11.94040     12.25084     11.64574        -0.135509     -0.684294      0.558805
I	      7.20982      7.01275      7.65038         0.123313      0.033740     -0.504385
I	      7.06892     11.89785     12.28095         0.023249      0.156435      0.022421
I	     12.11138      7.77543     12.01187        -0.852194     -0.464373      0.092291
I	     12.18906     12.30956     16.92908       -10.391771     -8.598357     11.175123
I	     12.01913     11.55497      7.06006         0.375236      0.546555      0.455226
I	     11.68978     16.92907     11.44800         0.170195     -0.433321      0.210229
I	     16.91807     11.74467     11.95052         0.366068      0.138156      0.216847
I	     16.32768     16.17215     16.73227         7.007837     11.444511      4.467900
N	      4.74442      4.86423      4.85466        -0.176280      0.714007      0.006364
N	      4.69122      9.48750      9.81305         0.487210      0.375148     -1.449487
N	      9.43696      4.64603      9.74882         0.270762      0.016531      0.387463
N	      9.20845      9.64232     14.57675         0.572237      0.029734     -0.086854
N	      9.55993      9.35371      4.75237         0.119570     -0.538607     -0.308327
N	      9.49915     14.28649      9.36595         0.670816      0.147358      1.030177
N	     14.45448      9.94386      9.87291         0.436342     -1.793339     -0.173605
N	     14.14803     14.27341     14.56675         0.335971      0.096670     -0.402571
Li	      2.74348      5.30928      5.06065         0.780043      0.223554     -0.090857
Li	      6.59367      9.90671      9.83206         0.286770     -0.292317     -0.008665
Li	     11.25166      4.40434      9.90086         1.032446      0.010164     -0.048941
Li	      9.46866      9.33474     12.79175        -0.095989      0.078467     -1.144685
Li	     10.78018      8.05897      4.20882         0.147912     -0.308903      0.379650
Li	      8.79134     12.69849      9.74396        -0.654499     -1.490148      0.095930
Li	     12.55180      9.69320      9.74530        -0.274568      0.317995      0.085411
Li	     15.29494     15.29577     13.30113        -0.433464     -0.590450      0.758310
Li	      6.51521      4.17739      4.85974         0.558930      0.070332      0.019653
Li	      2.77720      9.70589      9.58203        -0.096812     -0.396688     -0.136891
Li	      7.63002      4.90362      9.42387        -0.566822     -0.262897      0.102385
Li	      9.04932      9.96965     16.37105         0.095194     -0.280432      0.237693
Li	      8.28731     10.62402      4.79740        -0.740360      0.667863      0.599902
Li	     10.17965     16.12089      9.15837        -0.092170     -0.375005     -0.099044
Li	     16.54870      9.77477      9.82068        -0.696188     -0.124442      0.389993
Li	     15.19416     12.68334     13.85875        -0.366521      0.147803      0.478040
Li	      5.19516      6.65488      5.46324        -0.074123      0.368444     -0.083758
Li	      5.19419      7.72798      9.33285        -0.333296     -0.191983      0.089183
Li	      9.28224      6.50083     10.42643         0.368124      0.029762      0.078503
Li	      9.69778     11.68634     14.42890        -0.012879     -0.356905     -0.233596
Li	      9.82799      9.16422      6.84288        -0.152651     -0.118703     -0.543654
Li	      9.25135     13.70962      7.63411         0.169341      0.602371     -0.738361
Li	     14.23010      9.12111     11.79177         0.707532      0.645904     -0.588963
Li	     13.14863     16.02114     14.60171         0.474798     -0.089498      0.721213
Li	      4.37870      3.27598      4.04838        -0.510744     -1.011071     -0.242292
Li	      4.66216     11.17161     10.38758        -0.014349      1.675388      0.225261
Li	      9.42605      2.87181      8.86074        -0.074738      0.200544      0.289572
Li	      8.32508      7.74416     14.52837         0.489016     -0.152975      0.378477
Li	      9.16945      9.58054      2.78082         0.395143      0.082670     -0.095092
Li	     10.03553     14.09123     11.31706        -0.180885      0.753140      0.036074
Li	     14.60463     10.57897      8.18978        -0.453275     -0.231725     -1.121738
Li	     13.17120     13.10897     15.85225        10.522824      8.985613    -11.869129
Li	      4.95153      5.41289      2.98744        -0.030519      0.474113     -0.021780
Li	      4.58831     10.20702      7.87422         0.276865     -0.303453     -0.026031
Li	      9.46522      4.03891     11.58566        -0.359028     -0.181486      0.227810
Li	     11.06176      8.96999     14.54289        -0.128579      0.137264      0.063388
Li	      8.21299      7.97258      4.44959        -0.110722     -0.049210      0.568770
Li	     11.24467     13.18641      9.32346        -0.102265      0.452769     -0.510734
Li	     14.67624     11.70221     10.13123        -0.095476      0.495878      0.983232
Li	     12.90539     14.28319     13.05750        -0.091741     -0.585296     -0.030421
Li	      4.72432      4.52797      6.69639        -0.073690     -0.459263      0.562382
Li	      4.19783      9.23625     11.54324         0.005656     -0.700987      0.717425
Li	      9.64171      5.41880      8.12765         0.372901      0.580883     -1.186398
Li	      7.45288     10.01418     14.37249        -1.015731      0.582394     -0.342922
Li	     11.05125     10.49573      4.94376        -0.017359      0.129348     -0.513800
Li	      7.58874     14.80420      9.84223         0.352678      0.210033     -0.469297
Li	     14.38027      8.03276      9.15513         0.154940     -0.059419     -0.014221
Li	     15.45736     14.77153     16.17118        -7.319949    -11.214561     -5.053240
80
Config_type=. Weight=1.0 Lattice="0.509752000 9.212347000 10.567300000 9.880460000 -0.357973000 10.238433000 9.535574000 9.535574000 0.000000000" Energy=-261.877396 Virial="-9.13105 -1.99391 -5.59324 -1.99391 2.60571 0.30097 -5.59324 0.30097 2.81711" Properties=species:S:1:pos:R:3:force:R:3
I	     10.84417     17.76560     11.19786        -0.041633     -0.098940      0.115986
I	     10.16404     12.90895      5.48120         0.076393      0.089489      0.318058
I	      6.09130      8.90410     15.63445        -0.262338     -0.094927     -0.257326
I	      6.03889      3.79979     10.18153        -0.297776      0.384717      0.050105
I	      5.62174     13.33775     10.42329        -0.235232      0.077558     -0.144654
I	      5.34526      9.10393      4.99806         0.151179     -0.028578      0.150365
I	     10.67941     12.59750     16.59223         0.204312     -0.054528     -0.031184
I	     10.51067      8.01014     11.16166         0.027569      0.081893     -0.115450
I	      2.85908      1.87785      2.63040         0.342003     -0.136740     -0.159382
I	      3.10065      5.99547      7.52654        -0.170861      0.356107      0.218770
I	      7.77354      0.77170      8.22201         0.181527     -0.046366     -0.011631
I	      8.10459      5.87537     13.45007         0.602024      0.454235     -0.544753
I	      7.76395      6.49668      3.31033        -0.071335      0.217010      0.274550
I	      8.08931     10.97645      8.68188         0.148073     -0.249330     -0.394943
I	     12.37583      6.51878      7.58440         0.395961     -0.279333      0.277565
I	     12.79360     11.16036     13.14465        -0.045093      0.068416     -0.104239
I	      7.86175      6.47172      7.71513        -0.043934     -0.003142      0.082956
I	      8.32744     11.11336     12.88712         0.139134     -0.040201      0.109158
I	     13.10207      5.65221     13.16110        -0.138026     -0.031844      0.426218
I	      3.54416     10.34946      8.53403        -0.242079     -0.048929     -0.240816
I	     12.96894     10.86615      8.21129        -0.562559     -0.195620      0.161480
I	     13.26066     15.34186     13.61386         0.026921      0.065295      0.016273
I	     17.57038     11.05808     12.70906         0.127464     -0.366616      0.056120
I	     17.92827     15.15266     18.35582        -0.067829      0.257212     -0.101391
N	      5.60046      3.74212      5.44972        -0.141100     -0.145721     -0.260612
N	      5.90095      8.42080     11.01415        -0.450459     -0.300832      0.253671
N	     10.27945      3.57065     10.15575         0.794280     -0.273032     -0.674143
N	     10.65905      8.37127     15.77877         0.237021     -0.555460      0.220789
N	     10.29929      8.82617      5.31284        -0.216422     -0.157469      0.074029
N	     10.65566     13.80089     10.62396         0.187998      0.068641     -0.049347
N	     15.00740      8.20222     10.95650        -0.553232      0.692020     -0.164190
N	     15.57833     12.67558     16.06907        -0.164189      0.839487      0.300354
Li	      5.72131      5.15102      4.18902        -0.762029     -0.001256     -0.173085
Li	      5.78812     10.41902     10.77597        -0.092924     -0.162876      0.168328
Li	      9.02903      3.36417      8.73172        -0.609268     -0.405214     -0.155772
Li	     10.71439      7.01117     14.32344        -0.039561      0.013291     -0.088216
Li	     10.17993      9.97746      6.93326        -0.085421      0.125534     -0.186484
Li	      8.84242     13.37618      9.83622         0.096122      0.298405      0.255374
Li	     16.58338      8.51685     12.02731        -0.181441     -0.180415      0.141053
Li	     16.15785     14.23599     14.96125        -0.872701     -0.639995      0.598268
Li	      5.34338      2.23816      6.64632         0.668624     -0.070586     -0.046277
Li	      6.26026      6.56374     11.48144        -0.361090     -0.622111     -0.559235
Li	     12.05983      3.81690     11.19186        -0.474739     -0.070268      0.036376
Li	     10.84810      9.84706     17.03677        -0.159688     -0.084405      0.099835
Li	     10.46803      7.76874      3.56597         0.053340      0.343171      0.447019
Li	     12.59084     13.89600     11.31208        -0.161002     -0.191846      0.145206
Li	     13.06365      8.44717      9.92605         0.507354     -0.149504      0.101198
Li	     15.42868     11.08980     17.22638        -0.008693      0.069287     -0.240289
Li	      5.38937      4.98834      6.83349         0.488827     -0.066614      0.312505
Li	      4.87978      8.10410      9.40315         0.212428     -0.063764      0.027398
Li	      8.76051      3.85607     11.29341         0.058691      0.094280      0.232701
Li	     10.57131      9.61307     14.30165         0.097802      0.281924     -0.132936
Li	     10.07459      7.21964      6.35950         0.105952      0.050436     -0.118133
Li	      9.81973     14.80159     12.18275         0.812951     -0.519475     -1.097353
Li	     13.76845      8.32696     12.50887         0.318325      0.174768     -0.075870
Li	     15.25437     13.83307     17.66674        -0.013829     -0.005803      0.054055
Li	      5.74907      2.40319      4.02517        -0.126806     -0.084295      0.084906
Li	      6.78479      8.40069     12.68410         0.240670      0.755449      0.783938
Li	     11.53469      3.10351      8.57946        -0.114803      0.096278      0.354675
Li	     10.50559      6.82044     17.08118         0.084693      0.295807     -0.238985
Li	     10.44113     10.42431      4.28913        -0.092792      0.154508     -0.069550
Li	     11.32417     12.98074      9.01888         0.132175     -0.092150     -0.236463
Li	     15.97442      8.12812      9.38856         0.242386     -0.291830     -0.516860
Li	     15.56425     11.50547     14.56145         0.071040     -0.179649     -0.044640
Li	      7.57369      4.04122      5.40346        -0.225931     -0.217532      0.240217
Li	      4.11989      8.34959     12.00249         0.166280      0.218589     -0.034812
Li	     10.28928      5.31306      9.40355         0.205584      0.764582      0.314565
Li	     12.66845      8.17031     16.13165        -0.299613      0.024054     -0.174669
Li	     12.25964      8.74816      5.81542        -0.164248     -0.062647     -0.261678
Li	     11.08000     15.46329      9.74540        -0.452947      0.029402      0.225337
Li	     14.85444      6.26932     11.10247         0.021777      0.370966      0.013415
Li	     17.46949     12.81277     16.64934         0.009069     -0.289947     -0.028288
Li	      3.54078      3.59651      5.28593         0.165571      0.225609     -0.264361
Li	      7.62848      8.60425     10.25810         0.391978     -0.037237     -0.401939
Li	     10.20019      1.66239     10.74158         0.066406      0.188234     -0.002065
Li	      8.72378      8.46174     16.07454         0.074646      0.038886      0.010097
Li	      8.25500      8.72806      5.20474         0.323387      0.029975     -0.000031
Li	     10.59950     12.14988     11.50409        -0.057999     -0.394539      0.380139
Li	     15.36860     10.31250     10.53580        -0.261833     -0.154267      0.235786
Li	     13.68475     13.10360     15.50287         0.065519     -0.149679      0.033217
80
Config_type=. Weight=1.0 Lattice="0.000000000 9.588168520 9.588168520 9.588168520 0.000000000 9.588168520 9.588168520 9.588168520 0.000000000" Energy=-246.427449 Virial="23.15799 13.20833 -1.97175 13.20833 47.99458 -14.87640 -1.97175 -14.87640 21.18727" Properties=species:S:1:pos:R:3:force:R:3
I	     18.87908     18.95406     18.85655         0.391934      0.244587     -0.110543
I	      9.32008      5.40322     14.26270         0.718317     -0.468030     -0.103234
I	      4.94760      9.51857     14.16822        -0.238423      0.067123      0.484375
I	     14.11385     14.40579      9.98040         0.277487     -0.185785     -0.157740
I	     14.54481     14.52581     18.92644         0.520582     -0.619198     -0.022107