80
Config_type=. Weight=1.0 Lattice="0.000000000 9.035122000 9.035122000 9.035122000 0.000000000 9.035122000 9.035122000 9.035122000 0.000000000" Energy=-280.035844 Virial="0.09959 0.00000 -0.00000 0.00000 0.09959 0.00000 -0.00000 0.00000 0.09959" Properties=species:S:1:pos:R:3:force:R:3
Br	      0.00000      0.00000      0.00000         0.000000      0.000000     -0.000000
Br	      0.00000      4.51756      4.51756        -0.000000     -0.000000      0.000000
Br	      4.51756      0.00000      4.51756        -0.000000     -0.000000     -0.000000
Br	      4.51756      4.51756      9.03512        -0.000000     -0.000000     -0.000000
Br	      4.51756      4.51756      0.00000        -0.000000     -0.000000     -0.000000
Br	      4.51756      9.03512      4.51756        -0.000000     -0.000000     -0.000000
Br	      9.03512      4.51756      4.51756         0.000000     -0.000000     -0.000000
Br	      9.03512      9.03512      9.03512         0.000000     -0.000000     -0.000000
Br	      6.77634      6.77634      6.77634        -0.000000     -0.000000      0.000000
Br	      6.77634     11.29390     11.29390         0.000000     -0.000000      0.000000
Br	     11.29390      6.77634     11.29390         0.000000      0.000000      0.000000
Br	     11.29390     11.29390     15.81146        -0.000000     -0.000000      0.000000
Br	     11.29390     11.29390      6.77634        -0.000000      0.000000     -0.000000
Br	     11.29390     15.81146     11.29390        -0.000000     -0.000000     -0.000000
Br	     15.81146     11.29390     11.29390        -0.000000     -0.000000     -0.000000
Br	     15.81146     15.81146     15.81146        -0.000000     -0.000000      0.000000
Br	      2.25878      2.25878      2.25878         0.000000      0.000000     -0.000000
Br	      2.25878      6.77634      6.77634         0.000000      0.000000     -0.000000
Br	      6.77634      2.25878      6.77634         0.000000      0.000000     -0.000000
Br	      6.77634      6.77634     11.29390         0.000000      0.000000     -0.000000
Br	      6.77634      6.77634      2.25878         0.000000      0.000000     -0.000000
Br	      6.77634     11.29390      6.77634         0.000000      0.000000     -0.000000
Br	     11.29390      6.77634      6.77634         0.000000      0.000000     -0.000000
Br	     11.29390     11.29390     11.29390         0.000000      0.000000     -0.000000
N	      4.51756      4.51756      4.51756         0.000000     -0.000000      0.000000
N	      4.51756      9.03512      9.03512        -0.000000     -0.000000      0.000000
N	      9.03512      4.51756      9.03512         0.000000     -0.000000      0.000000
N	      9.03512      9.03512     13.55268        -0.000000     -0.000000      0.000000
N	      9.03512      9.03512      4.51756         0.000000     -0.000000     -0.000000
N	      9.03512     13.55268      9.03512         0.000000     -0.000000     -0.000000
N	     13.55268      9.03512      9.03512         0.000000      0.000000     -0.000000
N	     13.55268     13.55268     13.55268        -0.000000     -0.000000      0.000000
Li	      4.51756      2.59611      4.51756        -0.000000      0.000353     -0.000000
Li	      4.51756      7.11367      9.03512        -0.000000      0.000353     -0.000000
Li	      9.03512      2.59611      9.03512        -0.000000      0.000353     -0.000000
Li	      9.03512      7.11367     13.55268        -0.000000      0.000353     -0.000000
Li	      9.03512      7.11367      4.51756        -0.000000      0.000353     -0.000000
Li	      9.03512     11.63123      9.03512        -0.000000      0.000353     -0.000000
Li	     13.55268      7.11367      9.03512        -0.000000      0.000353     -0.000000
Li	     13.55268     11.63123     13.55268        -0.000000      0.000353     -0.000000
Li	      4.51756      6.43901      4.51756         0.000000     -0.000353     -0.000000
Li	      4.51756     10.95657      9.03512        -0.000000     -0.000353     -0.000000
Li	      9.03512      6.43901      9.03512        -0.000000     -0.000353     -0.000000
Li	      9.03512     10.95657     13.55268        -0.000000     -0.000353     -0.000000
Li	      9.03512     10.95657      4.51756         0.000000     -0.000353     -0.000000
Li	      9.03512     15.47414      9.03512         0.000000     -0.000353     -0.000000
Li	     13.55268     10.95657      9.03512         0.000000     -0.000353     -0.000000
Li	     13.55268     15.47414     13.55268        -0.000000     -0.000353     -0.000000
Li	      4.51756      4.51756      2.59611         0.000000     -0.000000      0.000353
Li	      4.51756      9.03512      7.11367         0.000000     -0.000000      0.000353
Li	      9.03512      4.51756      7.11367         0.000000     -0.000000      0.000353
Li	      9.03512      9.03512     11.63123         0.000000     -0.000000      0.000353
Li	      9.03512      9.03512      2.59611         0.000000     -0.000000      0.000353
Li	      9.03512     13.55268      7.11367         0.000000     -0.000000      0.000353
Li	     13.55268      9.03512      7.11367        -0.000000     -0.000000      0.000353
Li	     13.55268     13.55268     11.63123         0.000000     -0.000000      0.000353
Li	      4.51756      4.51756      6.43901        -0.000000     -0.000000     -0.000353
Li	      4.51756      9.03512     10.95657        -0.000000     -0.000000     -0.000353
Li	      9.03512      4.51756     10.95657         0.000000     -0.000000     -0.000353
Li	      9.03512      9.03512     15.47414        -0.000000     -0.000000     -0.000353
Li	      9.03512      9.03512      6.43901         0.000000      0.000000     -0.000353
Li	      9.03512     13.55268     10.95657         0.000000      0.000000     -0.000353
Li	     13.55268      9.03512     10.95657         0.000000     -0.000000     -0.000353
Li	     13.55268     13.55268     15.47414         0.000000     -0.000000     -0.000353
Li	      2.59611      4.51756      4.51756         0.000353     -0.000000     -0.000000
Li	      2.59611      9.03512      9.03512         0.000353     -0.000000     -0.000000
Li	      7.11367      4.51756      9.03512         0.000353     -0.000000     -0.000000
Li	      7.11367      9.03512     13.55268         0.000353     -0.000000     -0.000000
Li	      7.11367      9.03512      4.51756         0.000353     -0.000000     -0.000000
Li	      7.11367     13.55268      9.03512         0.000353     -0.000000     -0.000000
Li	     11.63123      9.03512      9.03512         0.000353     -0.000000     -0.000000
Li	     11.63123     13.55268     13.55268         0.000353     -0.000000     -0.000000
Li	      6.43901      4.51756      4.51756        -0.000353     -0.000000     -0.000000
Li	      6.43901      9.03512      9.03512        -0.000353     -0.000000     -0.000000
Li	     10.95657      4.51756      9.03512        -0.000353     -0.000000     -0.000000
Li	     10.95657      9.03512     13.55268        -0.000353     -0.000000     -0.000000
Li	     10.95657      9.03512      4.51756        -0.000353     -0.000000     -0.000000
Li	     10.95657     13.55268      9.03512        -0.000353     -0.000000     -0.000000
Li	     15.47414      9.03512      9.03512        -0.000353     -0.000000     -0.000000
Li	     15.47414     13.55268     13.55268        -0.000353     -0.000000     -0.000000
80
Config_type=. Weight=1.0 Lattice="0.000000000 9.306175660 9.306175660 9.306175660 0.000000000 9.306175660 9.306175660 9.306175660 0.000000000" Energy=-279.115141 Virial="-8.54547 0.74680 -1.09556 0.74680 -8.96631 -1.06919 -1.09556 -1.06919 -12.75391" Properties=species:S:1:pos:R:3:force:R:3
Br	      9.29633      9.39110     18.43050        -0.282449     -0.220515      0.511998
Br	     18.25739     14.19228     14.43752         0.266518     -0.025108     -0.267362
Br	      4.21497      0.38307      4.06026         0.320027     -0.117717     -0.028814
Br	      5.17597      4.14793      9.06734        -0.316265      0.481618     -0.045761
Br	      4.90105      4.61478      0.60932        -0.279000     -0.205799     -0.330562
Br	     13.77501      9.41832     13.79951        -0.339319      0.091719      0.299260
Br	      9.54958     13.98905     13.98201        -0.331876      0.150448      0.203661
Br	      9.02347      9.14191      9.26455        -0.047958     -0.045664      0.071482
Br	      6.90196      6.78460      6.93755        -0.044634      0.258903     -0.030820
Br	      7.40825     11.73802     11.77234        -0.043822     -0.164633     -0.243980
Br	     11.56021      6.67870     11.90398         0.110480      0.352877     -0.087367
Br	     11.89745     11.38695     16.52112         0.148752      0.213127     -0.143888
Br	     11.63329     11.62355      6.98327        -0.032839     -0.139008      0.010175
Br	     11.71119     16.17628     11.53263         0.084924     -0.243261     -0.529137
Br	     16.16434     11.62305     11.78522         0.569686      0.132649      0.197971
Br	     15.80415     16.58475     16.08167        -0.013031     -0.059158      0.135200
Br	      1.93871      2.62859      2.41029        -0.086294     -0.156774      0.077497
Br	      2.46765      6.76975      7.26012         0.426972      0.078141     -0.148368
Br	      7.03322      2.12404      6.58972         0.007108      0.016129      0.129558
Br	      6.71365      6.63654     11.69298         0.601447      0.520385     -0.347214
Br	      7.04945      7.08429      2.44770         0.106449      0.048517     -0.062640
Br	      6.76562     11.69365      6.95487        -0.082998     -0.134557      0.109397
Br	     11.94294      7.45642      7.04464         0.227343     -0.391656      0.062078
Br	     11.77343     12.03620     11.32743        -0.341025     -0.127630      0.198112
N	      4.76526      4.33109      4.49397         0.708374      0.150161     -0.303944
N	      4.89122      9.24092      9.40740        -0.168923      0.638969     -0.021919
N	      9.08002      4.53226      9.26675         0.680765      0.048781     -0.146426
N	      9.72403      9.25565     14.16267        -0.413434      0.087392     -0.786343
N	      9.30079      8.98685      4.78033         0.506317      0.515205      0.291896
N	      8.94145     14.26540      8.91024         0.373997     -0.446258      0.565055
N	     14.22566      9.52347      9.49773        -1.184091      0.468859     -0.126577
N	     13.84179     13.93385     13.74803         0.358449     -0.227218      0.697781
Li	      5.14228      5.55501      3.02926        -0.519025      0.175791      0.098054
Li	      6.14879      9.53251     11.02042        -0.248172     -0.301963     -0.498416
Li	     10.79554      4.77163     10.52208        -0.598925     -0.061466     -0.415980
Li	      9.50757      9.81771     16.03003         0.197145      0.224450     -0.316367
Li	      7.74641      9.97570      5.33917        -0.041769     -0.176124     -0.174019
Li	      8.59415     12.36083      9.01237        -0.224937     -0.263322      0.010264
Li	     15.80188      8.56605      9.49503         0.352458     -0.299168     -0.185810
Li	     11.92324     14.14955     13.43739         0.368519     -0.250294     -0.014668
Li	      4.74479      2.83162      5.66383        -0.195118      0.041430      0.060176
Li	      3.71487      8.92671      7.84382        -0.166633      0.479335      0.166713
Li	      7.52475      4.52083      7.88708         0.271140     -0.527850      0.391301
Li	      9.70882      8.73836     12.09375        -0.085785     -0.047472      0.371624
Li	     11.34238      7.97430      4.31372        -0.796564      0.740697      0.630365
Li	      9.86553     16.00480      8.97063        -0.389801      0.159719     -0.034787
Li	     12.70741     10.90658      9.31102         0.074916     -0.179463      0.081476
Li	     15.82987     13.71482     13.76625        -0.033815      0.226843     -0.039460
Li	      4.87625      2.81652      3.00479        -0.232092      0.408011      0.275957
Li	      3.47622      9.46668     10.88489         0.106972     -0.069209     -0.405802
Li	      9.08491      2.65426      9.81687         0.212738      0.015892     -0.107090
Li	     11.11899     10.45900     13.66964         0.089942      0.616901      0.057160
Li	      8.66802      9.08089      2.93872         0.271697      0.084123      0.096648
Li	      7.87396     14.42026      7.29728        -0.011028      0.227056      0.253402
Li	     15.20309     11.16032      9.08789         0.255202     -0.288198      0.035233
Li	     14.07479     15.64802     12.86959        -0.446794     -0.117791      0.429885
Li	      4.74869      5.60634      6.12423        -0.049993     -0.418511     -0.521483
Li	      6.43530      9.26539      8.21491         0.154220     -0.228433      0.318263
Li	      8.72079      6.39523      8.95015         0.263198      0.332106      0.032090
Li	      8.53869      7.82474     14.60074        -0.143501     -0.413447     -0.114947
Li	      9.95912      8.89062      6.72635        -0.188083     -0.040786     -0.333986
Li	     10.05170     13.97055     10.54472         0.019872     -0.040314      0.139244
Li	     13.04620      7.93052      9.91734         0.165978      0.258575     -0.190911
Li	     13.89677     12.11692     14.63955        -0.322382      0.102625     -0.079197
Li	      6.79459      4.24433      4.32740        -0.095087     -0.192271      0.437338
Li	      4.77115     11.26235      8.76157        -0.120155     -0.333869      0.328630
Li	      7.99966      4.74103     10.85345        -0.138700     -0.178684     -0.187554
Li	     11.31168      8.15608     14.32263        -0.024423     -0.380572      0.052651
Li	     10.27869     10.78881      4.86976         0.071199     -0.353474     -0.388929
Li	      7.29281     14.52685      9.96718         0.403929      0.176853     -0.089980
Li	     13.77848      9.28674      7.54095         0.244627     -0.419396      0.211700
Li	     13.94575     14.76959     15.59723        -0.168284      0.226790     -0.465788
Li	      2.93132      4.42647      3.99929        -0.071232      0.051226      0.175588
Li	      4.71126      7.32606      9.43179         0.283025     -0.224900      0.420530
Li	     10.54730      4.19183      7.85013        -0.640487      0.073225      0.091462
Li	      8.10718     10.55395     13.84168         0.670090     -0.363112      0.086254
Li	      8.48011      7.21862      4.76749         0.153244      0.024493      0.170221
Li	     10.33872     13.75569      7.65175         0.132320      0.149100     -0.230045
Li	     14.25985     10.00916     11.42476        -0.013798     -0.232334     -0.374697
Li	     14.06253     13.09681     12.00116        -0.285496      0.058266     -0.162310
80
Config_type=. Weight=1.0 Lattice="-1.021628000 8.613958000 8.907738000 9.989857000 1.016455000 8.973402000 9.412853000 9.412853000 0.000000000" Energy=-280.699687 Virial="-2.20920 -0.30380 -0.07546 -0.30380 4.26589 -0.55544 -0.07546 -0.55544 0.84327" Properties=species:S:1:pos:R:3:force:R:3
Br	     -0.26239      7.84000      7.87509        -0.100212      0.309662     -0.024816
Br	     18.36532     13.97643     13.02637         0.100572      0.218395     -0.408977
Br	      4.66374      8.64277     12.38708        -0.057403      0.157065      0.012142
Br	     13.79955     13.56639      8.69869        -0.113031      0.773264      0.312278
Br	     13.35305     13.99550     17.77646        -0.325982     -0.648168     -0.847050
Br	     14.62790      9.38973     12.06091        -0.121490      0.855124      0.063118
Br	      8.43044     13.67068     12.53312        -0.210907     -0.062220      0.123541
Br	      9.93328      9.15972      8.12748        -0.175405      0.020186     -0.214624
Br	      6.92785      6.81965      6.06237         0.183883     -0.189533      0.096671
Br	      6.44842     10.94097     10.18025         0.237086      0.181734     -0.009873
Br	     11.52343      6.80672     10.65169         0.152823     -0.072274      0.054432
Br	     11.82672     11.53431     14.75517        -0.087872     -0.317745      0.069028
Br	     12.14061     11.49916      5.84283        -0.307044     -0.295590      0.173873
Br	     11.23963     15.39186     10.80360        -0.310557      0.738690     -0.525841
Br	     17.13499     11.87477     10.26696         0.072050      0.185740     -0.155519
Br	     16.28763     16.32363     14.92538        -0.263822     -0.160221      0.015937
Br	      2.04937      1.53784      1.70510         0.714728      0.703483     -0.189809
Br	      1.96514      6.05283      5.55953         0.300264     -0.058723      0.046139
Br	      7.00474      2.62157      5.90540         0.263886     -0.317680      0.198349
Br	      7.23601      6.67739     10.17396        -0.192651     -0.235818     -0.439296
Br	      7.14000      6.71307      0.99589         0.224452     -0.170833     -0.090575
Br	      6.45609     10.80469      6.22327        -0.334953     -0.049055      0.045525
Br	     12.24534      6.93510      5.68502        -0.074442      0.257086      0.424948
Br	     11.24146     11.49628     10.77846         0.343083     -0.055155     -0.071782
N	      4.88082      4.35652      3.44562        -0.614893      0.455812     -0.123227
N	      4.19454      8.48647      8.40218        -0.171590     -0.411848     -0.089645
N	      9.99918      4.68336      7.99462         0.163021     -0.253434      0.241897
N	      8.88834      8.91319     12.49389         0.533876     -0.476984      0.499775
N	      9.19538      8.97060      3.79025         0.813153      0.309767     -0.747399
N	      9.16372     13.33439      8.02871         0.304639      0.548954      0.064958
N	     14.35640      9.52236      8.27919         0.507581      0.371311      0.352186
N	     14.03301     13.77537     12.54334         0.605075     -0.224404      0.616314
Li	      6.43504      4.71093      4.58012        -0.069269      0.237392     -0.032045
Li	      2.70606      8.33673      9.80276         0.399823     -0.112458     -0.329282
Li	     11.24231      3.20216      8.18639         0.155587     -0.232112     -0.161931
Li	      8.88644      8.81442     10.50752         0.310637      0.125741      0.154559
Li	      8.11830      7.41823      3.27866         0.060440      0.106822     -0.118203
Li	     10.52743     12.04411      8.26314         0.306985     -0.333550     -0.012502
Li	     14.90306      7.69651      8.61576        -0.057661      0.439020     -0.045537
Li	     15.54460     13.97559     13.90178        -0.028000     -0.301836     -0.259157
Li	      3.34017      3.95803      2.12897         0.301325     -0.001370      0.353196
Li	      5.56107      8.58443      7.05215         0.044868      0.232239      0.043029
Li	      8.67133      6.07233      7.88839        -0.006969      0.131866      0.021237
Li	      8.73647      8.69765     14.40226         0.001492      0.113984      0.336441
Li	     10.72435     10.28658      4.05755        -0.445370     -0.002709      0.461508
Li	      7.67843     14.60478      7.92341         0.269359     -0.041478      0.180420
Li	     14.26311     11.48775      7.93288         0.304209     -0.950640     -0.437469
Li	     12.74349     13.62225     11.15659         0.014496     -0.321310     -0.121693
Li	      5.50303      2.63255      3.62486        -0.024104     -0.597824      0.043462
Li	      4.90779      6.56235      8.55582        -0.309664      0.304734     -0.147037
Li	     10.27553      4.79054      6.04097         0.064133      0.062022      0.088815
Li	     10.09327     10.46591     12.77977        -0.183057     -0.027216     -0.252191
Li	      9.58563      9.66340      2.00322        -1.066786     -0.690795     -0.043894
Li	      9.61986     13.41944      6.12377        -0.178110     -0.206797      0.197397
Li	     13.10248      9.69316      9.83188         0.073438     -0.058874      0.088667
Li	     13.87537     11.76091     12.72838         0.093247      0.267304      0.001342
Li	      4.12032      6.16343      3.46083         0.096676     -0.659758      0.029261
Li	      4.10363     10.49891      8.10545         0.094865     -0.373037      0.189062
Li	      9.83825      4.79910     10.03572        -0.083291     -0.020415     -0.114841
Li	      7.73404      7.25709     12.51677         0.348567      0.087334      0.062925
Li	      8.86089      8.49141      5.47698         0.017058      0.011211      1.134474
Li	      9.32899     13.64982      9.97434        -0.153903     -0.206708      0.165308
Li	     15.62435      9.38787      6.65430        -0.445943      0.461742      0.341466
Li	     13.92730     15.67924     12.56961        -0.387970     -0.234591      0.040718
Li	      3.60196      4.09502      4.90005         0.321574      0.143119     -0.113329
Li	      2.89857      8.09427      6.91993        -0.051159      0.215479      0.345668
Li	      8.68739      3.29218      7.98569        -0.400659     -0.041515     -0.123596
Li	      7.32695      9.85234     12.39098        -0.525822      0.608284      0.007144
Li	      7.72700     10.33998      3.99092         0.376909     -0.098444     -0.251920
Li	      7.96680     11.79641      8.03951         0.027599      0.086491      0.064122
Li	     15.72883      9.89236      9.69196        -0.037558     -0.140136     -0.181633
Li	     12.67303     13.71661     13.95468         0.164243      0.106098     -0.224983
Li	      5.91337      4.52693      1.77065         0.200829      0.079992      0.459463
Li	      5.50035      8.62742      9.91579        -0.340462      0.321169     -0.201200
Li	     11.54175      5.83141      8.23927         0.001815      0.368875     -0.187138
Li	     10.45628      7.75351     12.66199        -0.205307      0.028000     -0.278126
Li	     10.75634      7.66729      3.71054        -0.387085     -0.180929      0.055415
Li	     10.44382     14.97527      8.01968        -0.271252     -0.211764      0.153314
Li	     12.82627      9.31261      7.32282        -0.661931     -0.297399     -0.703387
Li	     15.30770     13.83320     11.09739         0.213241     -0.281846     -0.149998
80
Config_type=. Weight=1.0 Lattice="0.000000000 8.764068340 8.764068340 8.764068340 0.000000000 8.764068340 8.764068340 8.764068340 0.000000000" Energy=-274.830474 Virial="19.93204 -0.22840 -1.02007 -0.22840 31.37407 5.73525 -1.02007 5.73525 29.84806" Properties=species:S:1:pos:R:3:force:R:3
Br	     17.45329      8.76048      8.69427        -0.137597     -0.062618      0.310285
Br	     17.33380     13.07057     13.23569         0.277318      0.252577     -0.170595
Br	      4.52934      8.81454     13.21986        -0.589567      0.662679      0.187795
Br	      4.52221      4.40357      8.77849        -0.317890      0.116820     -0.114064
Br	     13.10330     13.05322     17.19493         0.282565      0.161561      0.225420
Br	     12.93899      8.74258     12.98487         0.350198      0.169580      0.269367
Br	      8.88073     13.21006     13.06389         0.175816     -0.071122     -0.146684
Br	      8.73402      8.64226      8.86879        -0.057175      0.067905      0.062712
Br	      6.42548      6.49835      6.35845        -0.072549      0.140466      0.314433
Br	      6.42739     11.01629     11.04850        -0.134460     -0.077383     -0.291782
Br	     11.45188      6.40052     10.86870        -0.596934     -0.191740     -0.183025
Br	     11.06060     10.65476     15.27889         0.019663      0.499395      0.271146
Br	     10.76555     11.06123      6.67373         0.217661     -0.400927      0.069791
Br	     11.12085     15.54003     11.08409        -0.314064      0.033662     -0.180366
Br	     15.55824     10.89546     10.90961        -0.417031     -0.115768     -0.073690
Br	     15.22505     15.47522     15.36995         0.213681      0.267310      0.323196
Br	      2.07648      2.22482      2.14045         0.160262     -0.509257     -0.267255
Br	      1.82217      6.71447      6.67801         0.206406     -0.446350     -0.245571
Br	      6.74408      2.33609      6.46515        -0.342509     -0.152339      0.140739
Br	      6.30096      6.62466     11.20971         0.826009     -0.093360     -0.844084
Br	      6.65305      6.46767      2.15168        -0.044042      0.159185      0.021558
Br	      6.68559     10.81341      6.65630        -0.356866     -0.015223     -0.156099
Br	     10.80573      6.73936      6.85048         0.058769      0.169534     -0.420589
Br	     11.14239     11.23282     10.72581         0.251354     -0.308297      0.487872
N	      4.31870      4.18396      4.34664        -0.463170      1.330725     -0.521344
N	      4.40704      8.74502      8.77544         0.092690     -0.493573     -0.607617
N	      8.89779      4.32581      8.56154        -0.558206      0.765445      0.574483
N	      8.86820      8.74398     13.06648         0.165552      0.477322     -1.108855
N	      8.66192      8.75650      4.61724         0.569503     -0.511680     -0.299853
N	      8.66827     12.84704      8.92559         0.020278      0.829486     -0.769723
N	     13.08930      8.75352      8.74018         1.040186      0.673900      0.140883
N	     13.18519     13.30939     13.28712         1.349247     -0.204419      0.211595
Li	      4.90812      4.48126      2.50221        -0.077682      0.237294      0.120638
Li	      3.90033      8.87027      6.97009        -0.174442     -0.002181     -0.329053
Li	      8.49656      2.54079      8.28050         0.124284     -0.459527     -0.131397
Li	      8.46027      8.26695     11.28692        -0.464004      0.033183      0.178762
Li	     10.56421      8.91727      5.01318         0.075490     -0.215397     -0.002110
Li	      9.16970     13.07186      7.01290        -0.279734     -0.031111      0.202444
Li	     11.37774      8.67483      8.24200        -0.790966      0.347758     -0.154130
Li	     11.74458     13.39028     12.22317        -0.937949     -0.232137      0.004393
Li	      3.83281      3.90676      6.08502         0.020899     -0.004116      0.281045
Li	      4.62460      8.53196     10.57500         0.231036     -0.271217      0.409599
Li	      9.26795      6.17008      8.90005         0.081684     -0.275756      0.070744
Li	      8.51102      8.36317     14.74413         1.236313      6.457745      5.576157
Li	      6.77282      8.56901      4.34135         0.042450      0.044103     -0.107557
Li	      8.24727     12.75400     10.71933        -0.090755      0.161534      0.181839
Li	     14.85202      8.68767      9.55324         0.569904     -0.084308     -0.231610
Li	     15.02932     13.37216     14.21372        -0.399761     -0.092593     -0.507346
Li	      2.26404      4.08081      3.56131         0.823227      0.478991      0.712133
Li	      6.26251      8.89912      8.25851        -0.238345      0.287726      0.231572
Li	      9.15583      4.78290      6.64145         0.063631     -0.352864      0.722006
Li	     10.54205      7.82052     12.63110        -0.375099      0.495051      0.564581
Li	      8.67557     10.52992      5.22972        -0.216526      0.166891     -0.098523
Li	     10.53995     13.12102      9.10277         0.381640      0.385415      0.351024
Li	     13.41661     10.68461      8.86163        -0.096455     -0.115038     -0.084620
Li	     12.54498     14.02953     14.83597        -0.155638     -0.449980      0.266946
Li	      6.25638      4.46410      4.78030        -0.454840     -0.248019      0.021263
Li	      2.46300      8.39804      9.04137         0.205685     -0.046918     -0.089185
Li	      8.42165      4.10022     10.60579         0.061691     -0.041441     -0.657631
Li	      7.09108      9.63821     13.16481         0.329412      0.139650     -0.266648
Li	      8.95084      7.01483      3.73733        -0.069813     -0.309268      0.268135
Li	      6.74235     12.31595      8.61256         0.862982      0.262665      0.153799
Li	     13.14068      6.89694      8.80214         0.074087     -0.390330      0.086044
Li	     14.02680     12.89328     11.55892         0.251075      0.042005      0.204708
Li	      4.37922      2.43733      3.88369         0.014378     -0.257471     -0.054314
Li	      4.16245     10.59792      8.98712        -0.104537     -0.120283     -0.016442
Li	      6.89769      4.54336      8.16324         0.730722     -0.002888     -0.015737
Li	      9.94012     10.53838     13.05591        -0.446334     -0.549340      0.026381
Li	      9.03430      9.21367      2.84028        -0.134636      0.622204     -0.521055
Li	      8.54264     14.87431      9.00629        -0.324314     -0.351632     -0.022791
Li	     12.60630      8.90288     10.52171        -0.473784      0.032800      0.395219
Li	     13.44136     11.44631     14.03147        -0.778733      0.316369     -0.327396
Li	      3.87919      6.22400      4.50824         0.421865     -0.877241      0.064425
Li	      4.90031      6.84359      8.44384        -0.349052      0.266450      0.297033
Li	     10.74261      3.88219      8.93912        -0.571688     -0.025569     -0.160814
Li	      8.37313      7.30233     14.02138        -0.661707     -6.960108     -4.582236
Li	      8.39945      7.97758      6.33197         0.227007      0.065793     -0.163847
Li	      9.38605     11.10238      9.06700        -0.430908     -0.231388     -0.357523
Li	     13.56016      8.85293      6.88739         0.451798      0.034360      0.276822
Li	     13.44517     15.28168     12.88839        -0.058655     -1.003360      0.004177
80
Config_type=. Weight=1.0 Lattice="0.000000000 9.035122000 9.035122000 9.035122000 0.000000000 9.035122000 9.035122000 9.035122000 0.000000000" Energy=-280.004903 Virial="-1.64399 -1.32549 -0.83806 -1.32549 2.92625 2.73421 -0.83806 2.73421 -3.80795" Properties=species:S:1:pos:R:3:force:R:3
Br	      9.00040      9.05456      0.09597        -0.095032     -0.135047     -0.040740
Br	      8.82110      4.78231     13.53737         0.217315      0.167414      0.008877
Br	     13.44591      9.01778      4.44627         0.134160      0.099518      0.178455
Br	     13.68512     13.39187      9.07697        -0.323368      0.215026     -0.179030